########

4000	atoms
2 atom types # Cu Zr
0 41.1734 xlo xhi
0 41.3273 ylo yhi
0 41.2029 zlo zhi

Atoms

1	1	13.341622669	14.4531899925	12.0692770767
2	2	6.0217332702	16.9940750511	13.920399765
3	2	15.145841057	35.486925964	25.6044297267
4	1	32.7471401698	9.0889891071	10.0851102243
5	1	25.8658710012	28.0826855687	19.6354892124
6	2	30.1353878876	8.1259803625	10.1721307491
7	2	10.2512296118	28.0658653576	26.2549823148
8	1	16.581557515	23.479278949	3.9348357471
9	1	20.5157170584	1.91437972152	33.5039733234
10	2	25.3453980518	11.5973909079	10.8041008293
11	1	22.9614993652	19.5781471382	6.2572372056
12	1	15.3520374442	14.4302946683	3.61381571262
13	2	27.7468777802	21.7803549733	6.485748489
14	2	19.0856001828	35.6358695532	33.6068981676
15	2	3.70762761394	26.0214038266	33.3696106665
16	2	11.7582172252	25.6747504342	33.6882326922
17	2	21.1743679382	10.5550750746	3.95577918117
18	2	36.9884532772	36.4561751309	0.99534669588
19	1	15.8457476836	39.7240900511	27.8276970078
20	1	30.9416865798	12.4955157915	5.985545283
21	1	31.7897350996	40.8421588253	36.7294599441
22	2	2.64128184468	36.2447446641	30.6131366565
23	2	33.1275823858	10.1265936282	40.7437348824
24	1	34.3640607612	41.078509654	27.8530367913
25	2	4.1264393214	13.4068240838	32.5924003638
26	1	15.6618261058	25.4904720035	5.5450450791
27	2	9.034267428	35.0109181226	30.2229863964
28	1	2.60867662922	5.2322428165	3.38848117281
29	2	6.5434414216	2.57271947779	2.12836052124
30	2	37.2676501026	20.699191478	0.277007508729
31	2	28.5691517516	26.8457181524	27.4612796181
32	2	4.8970818492	34.6382698585	2.75799027672
33	2	31.7266162774	34.243387507	35.2548905589
34	1	7.5930749078	9.0989903137	14.0718204225
35	1	16.462154655	15.5866738496	25.667346555
36	1	34.672737741	6.3430379859	3.7492578855
37	1	8.4222660104	23.5779685414	31.0924499922
38	2	27.1296473408	40.0487159926	3.48841880676
39	2	36.1264881482	39.247296991	27.3550585419
40	1	9.3253221926	35.8046502464	37.6210907001
41	2	7.8707894908	17.5778644909	6.3965854134
42	1	31.1232201004	40.9944085985	23.0914236528
43	2	22.226842389	27.280564003	12.6525453291
44	2	1.48795315058	5.0228787147	38.3413173921
45	1	19.2169845022	6.1894657391	27.9169836921
46	1	9.2424813118	2.57306249438	20.1602493468
47	2	5.5855010972	28.7311935603	8.3078231328
48	1	21.8067090154	29.8002068294	16.3931094027
49	2	33.754982655	1.75278584579	16.1272682919
50	1	34.4093103278	22.2156554242	30.9528957699
51	2	13.224690213	2.01248246626	6.2094830445
52	2	19.3722493936	16.9378699231	38.1278039643
53	1	40.6833130198	1.29979317776	17.5287025296
54	1	12.7931106342	10.7906406846	30.3148688634
55	2	6.9446350312	41.2991561087	0.066965425254
56	2	13.3282824874	30.2970023027	26.2787563881
57	2	31.6103837692	4.6849867099	36.2288447091
58	1	19.5745754812	14.8044720425	21.9469719024
59	2	9.2762846732	21.8197812175	26.851105872
60	1	40.0917336086	28.4260741044	1.82003922054
61	1	0.208670085072	32.8249932437	2.98325065131
62	2	3.955322671	27.0230122694	27.040227183
63	1	39.8005964972	5.1776494532	4.3143144561
64	1	8.9202582834	18.8983130532	3.99171635055
65	2	30.2731952574	35.4277452704	21.2338733121
66	2	11.7190201484	38.8134016683	0.248847386724
67	2	9.874822389	35.9533458718	11.2022856549
68	1	40.9420466654	13.2377127722	3.14597738457
69	2	22.3757665768	22.0851438108	13.2062298993
70	2	32.232184456	23.919827967	30.773621952
71	2	7.1477845868	31.5197944551	8.6428439127
72	1	22.7711959104	24.5018403329	12.0290630463
73	2	21.2025305438	5.3251879142	30.2619643398
74	1	30.4801327658	33.2343401502	10.0396634256
75	1	13.402353434	37.6163150965	6.8656804299
76	2	38.4167585232	36.1726698529	30.5861075541
77	1	28.5369953262	27.6320940168	19.9159985556
78	1	41.0227465294	3.9776286431	7.112444598
79	2	35.4289695788	19.3149335645	4.8554733447
80	1	32.5374028702	25.7453787899	15.0014814552
81	1	32.9950863846	8.493173423	12.5401438179
82	2	34.7405915042	15.6864379518	21.7238994018
83	2	9.8599587916	1.45939921036	12.7794090582
84	1	18.8184671636	18.989067804	25.4956128678
85	1	14.6753526152	35.37203607	3.79204709715
86	1	17.8389108042	14.4598850151	23.8363308819
87	1	32.4887359114	24.9378433479	8.0216689923
88	2	18.2767075664	24.1162566239	14.748578055
89	2	8.0927552902	21.1428400435	5.2033082265
90	1	22.5851333158	14.1312916528	23.657057064
91	2	32.2094567392	10.819900413	36.0878895882
92	1	37.6518802714	16.1850518263	17.3420945955
93	1	35.3155780352	9.0691933304	32.2126332345
94	1	32.730382596	14.6778451953	11.6721635265
95	2	7.4189937726	22.627936569	15.2711544357
96	2	28.9433767842	21.2816171169	16.1086445811
97	2	2.12722782834	18.397260868	10.8887315859
98	1	33.3170623726	14.9673842591	27.02498211
99	2	1.0614090786	27.0740928122	10.9128764853
100	2	2.79343814438	0.90216256081	12.6857548665
101	2	0.202714764496	1.75014916405	38.5896060675
102	2	36.1292055926	13.3278062862	33.6343805019
103	1	10.8118877996	25.2473021703	40.9175699175
104	1	39.717508576	1.20917893978	26.9981590221
105	1	29.2229441702	7.6649330037	4.4704322442
106	2	18.8910558678	35.5437510015	9.7219066608
107	2	10.0425216472	9.5617734191	40.4239591755
108	1	9.5166961558	23.1600668838	3.51430246854
109	2	18.108473054	31.8312783152	18.4533780114
110	2	15.1042970964	32.0341127036	35.1074665827
111	2	12.6823130148	34.8749926329	11.3548187907
112	2	22.084794159	8.0916373762	24.2238441564
113	2	35.1765354634	31.0003516214	1.3101698142
114	1	40.226205933	3.12098397051	25.2330267861
115	2	1.48636385734	32.3246849499	22.8517875864
116	2	9.7655893588	10.419438876	20.4787889667
117	1	23.9727592426	1.89789012882	5.8396458141
118	2	38.5139277472	14.9780880298	8.9121048642
119	1	20.6971682322	13.8836171439	12.6015773418
120	1	17.4609801656	13.5816385628	9.9684648144
121	1	17.5209698094	15.189435842	38.2719729114
122	1	16.8210631828	29.5942315662	29.7149134365
123	1	8.5802895196	17.3055175839	27.1946556522
124	2	8.1839131978	0.92911209314	15.1758109251
125	2	4.7310707004	14.1870835078	13.3252238745
126	1	40.3088409468	40.9961443451	36.8367110928
127	1	32.0878305156	1.98421459306	23.1566890464
128	1	12.2564565386	1.11515106682	17.8950375135
129	1	39.6571071982	28.5625781763	14.7128551407
130	1	26.3545169124	20.9786880079	34.9881429843
131	2	22.880264247	3.54170001724	22.767074424
132	1	31.2773321366	2.45613103176	34.7472708309
133	2	26.1039767734	12.1271655666	23.8112795187
134	1	39.0423059894	12.8336970874	4.4123773581
135	1	3.12470285142	35.6433497945	0.88293282381
136	2	5.2248221132	34.0915510068	40.8943314819
137	2	0.201460210998	12.4460883407	32.9331895497
138	1	26.244542761	14.6628847127	40.7048805477
139	2	21.5257417338	2.67300017124	7.515820989
140	2	0.36838664448	16.7003206027	30.3537231981
141	1	33.7191206236	5.290720946	28.6370455725
142	1	39.490849009	35.8239914228	14.6603214432
143	1	20.2387024232	7.7280397908	26.190211356
144	2	35.5192216716	12.8058424872	14.3909780859
145	1	26.8742487406	14.7085927065	16.7194775736
146	1	0.4801847775	7.2879867004	21.6045758034
147	1	0.261752891022	36.1963090685	31.9466273121
148	2	10.4966642492	13.3850445967	20.0136082257
149	2	25.6181306534	29.5620375995	34.1170312725
150	1	22.053708242	20.3676638774	18.655437033
151	2	17.215216141	29.8474852606	36.2501466084
152	1	7.0985412004	20.3453471354	10.7826753213
153	1	38.2246022654	15.5064988876	13.1311994184
154	2	8.7622759476	15.0044548472	29.6845468992
155	2	28.5359248178	16.6820126088	17.5202147322
156	2	27.852775765	35.7220369737	23.2115713092
157	1	19.5621411144	25.2818931204	7.6696314147
158	2	12.1523701834	31.4920225095	10.8419250915
159	2	37.506702863	22.8879266133	7.100907786
160	2	40.883333397	25.6328858793	37.5011078553
161	1	36.9312634246	25.81716431	31.3259056236
162	1	6.9360297906	28.6259329272	30.5256628998
163	2	15.0985739938	7.2202099284	16.1892786564
164	2	0.361695555246	9.2347504942	31.5102473982
165	1	21.2218820418	22.2557429052	20.0252686464
166	2	26.2665293566	19.0162198401	10.7453454939
167	1	1.242407345	28.6318840584	18.5464553625
168	1	20.614492045	11.5603616471	11.5507385802
169	1	33.6587192458	10.7631993574	11.8177333722
170	1	15.209248093	14.6507344865	30.5531452341
171	2	19.7274934888	27.5312140775	8.9474157495
172	1	32.9884574672	11.052986385	2.17029271257
173	1	33.5662849628	14.9842457975	2.12000045283
174	2	15.8782334962	11.6974029739	11.0893897089
175	1	25.6512752404	33.2838089283	37.0344850128
176	2	38.9231501698	15.2793227195	40.4741031048
177	2	18.1472995702	24.1520047384	17.7200900001
178	2	32.7103723236	4.9412159699	23.4352618533
179	2	29.2080393994	18.5566189368	31.4585377587
180	1	1.59567099966	36.7269102732	6.7475517156
181	1	3.31047311488	4.6623393495	36.0854586171
182	2	28.6353997522	39.1244722554	11.54917287
183	1	14.6278385116	19.3495658419	26.6270857047
184	1	26.9335384366	27.4842662647	35.4708349578
185	2	3.45598814516	31.089701244	12.0680821926
186	1	10.2737102882	40.6964387655	33.5200836573
187	1	27.8225956628	7.2157052527	9.2403683685
188	2	10.9890157664	37.8848598919	37.7253340371
189	1	13.1301149132	13.8699791349	24.7283736669
190	1	20.4984242304	37.005290966	19.3067724762
191	2	30.1250945376	37.9673078554	16.5397917267
192	1	31.7499615952	18.1499996321	29.6867306529
193	1	20.2440961386	7.9746811172	3.15506674431
194	1	30.4873381108	26.0159072957	25.5650397543
195	2	18.4782513594	21.6101691519	23.6959938045
196	2	23.4794195638	11.8260961861	22.3004515815
197	1	24.9670968526	32.5213202433	0.0042403140477
198	1	7.731746919	16.2108813888	32.1128398107
199	1	40.1729687268	3.75563078569	30.5334914508
200	1	3.99579200586	36.4710942862	39.7895581242
201	1	19.0107057682	24.7722035295	27.4791204738
202	2	4.03125053794	38.9527986512	34.1760750282
203	1	25.587621164	9.9080135385	21.9226209885
204	2	18.0219265672	3.68227482819	4.8045877632
205	1	12.7821996832	29.422971235	38.3800069152
206	1	12.0613769694	8.8448274187	13.5658488105
207	1	2.15432404288	33.0301006336	19.2453389523
208	2	33.9790482978	35.8008894621	2.8311748677
209	1	37.092910193	17.2903504648	29.2362593472
210	1	39.6179924682	12.0104985987	17.9741882844
211	1	29.8751308262	21.2006569362	37.5030031887
212	2	15.2565563296	2.43243395794	39.7232626581
213	1	11.328449276	15.128684711	3.48153792246
214	2	38.1968102204	9.6442627099	9.9668991042
215	1	35.7801786808	24.576518764	12.5401850208
216	1	28.0159459492	11.8687459597	12.3809358123
217	1	9.1212668222	33.7871754423	18.1509075225
218	2	3.4497750791	14.0438017587	22.7133458424
219	2	24.8922847848	26.9346958293	13.5950204637
220	1	7.4469093378	17.3866430738	29.2394319705
221	2	20.7814913554	2.22754973546	29.7550038582
222	1	27.7339493326	40.6037416316	13.7819168181
223	1	3.84588789114	17.8654611716	34.0959353877
224	1	3.06422324416	0.67272165667	34.3669680639
225	2	29.5337209934	12.5040705426	3.16505844756
226	1	27.9476392786	0.049064183833	32.786383617
227	1	10.0074830838	33.3748116429	22.6475448111
228	1	41.0725663434	10.6345474725	10.571016024
229	1	22.9574231986	40.5971292636	26.4990682944
230	1	13.9251320938	6.919429839	13.5365535486
231	2	18.0677937348	34.7011286818	20.9626758243
232	2	33.1457810286	41.2779552038	25.3542869208
233	2	2.75714379228	38.993547369	38.9207949777
234	1	10.1827582476	33.5805802696	26.6202460233
235	2	9.8983735738	5.5265345198	3.70815799275
236	1	9.9430467128	41.1562463053	3.99143205054
237	2	18.037243072	11.2795839709	40.144809528
238	2	35.3799320594	26.9864789362	22.3441266555
239	1	20.1419449332	19.2867483459	23.3935645185
240	2	36.534187155	31.7134955102	30.0156946065
241	1	1.0108275567	30.9117458902	25.0815649257
242	1	14.6424138952	14.0522738552	26.7519304917
243	2	25.1717286506	4.1873233633	13.3288909326
244	2	20.8603384164	15.161746551	34.8022767024
245	2	17.2717883926	34.0019120931	35.7691439538
246	2	19.6762326058	22.5753269161	3.86328691125
247	1	14.267818302	5.5190129512	23.6088084681
248	2	36.816842546	16.2286108005	34.6047499998
249	1	37.9118902924	39.32292595	17.2286218089
250	2	24.2874475388	14.0221462535	1.60629917679
251	1	40.1146671924	24.7088901059	35.1221348151
252	2	1.7836522747	1.05026307309	29.3527811484
253	2	36.7895857552	23.0391845313	32.2172067564
254	2	7.7262708568	25.8498955316	14.1162371487
255	2	9.5206899756	21.8984270694	20.3497414839
256	2	18.783716814	17.2658020486	21.0988926117
257	2	32.996774494	22.5728059508	28.1167353513
258	2	25.0324802118	13.8887004018	27.4301714286
259	2	17.5665075898	39.4548013643	0.852075972
260	1	1.29107018646	1.11138201706	15.3351013365
261	1	34.7642250358	13.1081516867	11.8026531108
262	1	35.5449550466	36.2714420999	13.5068050548
263	2	21.9543980012	22.179948637	36.7395546546
264	1	6.9624631134	11.8830038782	14.0297934645
265	1	5.5664789864	11.0092207743	0.5679819765
266	2	20.8376106996	20.7232439666	25.6877007876
267	1	16.4482792192	19.4693323573	38.9386770363
268	1	38.9199386446	38.5942016691	1.74153533517
269	1	21.4043625506	18.5588092837	39.2310528147
270	1	35.871707149	33.8995856983	1.48123601442
271	1	34.9327889354	24.2192855828	34.7088285252
272	2	16.944089302	16.1543869697	2.21126899662
273	2	1.85024613186	14.8818780754	25.4062025748
274	2	26.3942904168	40.7167304698	28.3457410695
275	2	32.3258127676	12.4931601354	26.9169481062
276	2	32.844844648	1.62977100461	32.6175753357
277	2	3.63266320456	38.6586722571	17.7462538416
278	2	11.4761794352	19.1329694626	37.7770024737
279	2	37.6517979246	26.3963250922	37.4176307799
280	1	9.3336392194	8.7615115819	7.3805518683
281	2	21.9399049644	32.0843253731	14.1970772385
282	1	22.5870684656	31.0013021493	6.1480083177
283	2	31.6430342754	9.733818969	14.7856194621
284	1	17.1719428976	18.9038095841	29.7344436111
285	1	39.0980135996	2.94636372982	10.6673896071
286	1	33.1718026174	6.9003779537	37.3155711966
287	1	17.4030080184	25.4701802992	37.2602769048
288	1	21.6145527576	35.5455694027	9.0064595052
289	2	14.6956511014	18.8344623747	19.4019511752
290	2	0.6869575923	1.19584262007	32.1301862316
291	1	16.098387666	8.4234955952	5.5659761523
292	1	23.1097647786	5.5900545799	33.1111860777
293	2	16.1094633106	21.0241893652	21.00111813
294	2	31.433626363	25.3210300735	28.1132743077
295	2	12.1260603808	3.15439709256	19.4949873234
296	2	10.5081516278	30.1050783215	5.4884322945
297	1	11.0841263204	9.0775827723	37.9682663355
298	1	22.8824876106	15.5048044683	3.9909952998
299	1	33.2867175768	22.7237745777	36.1065545019
300	1	25.3572971644	1.74275571008	29.0677394862
301	1	32.9764760078	20.838877752	13.4860799961
302	1	32.4928532514	28.3039932602	22.3625855547
303	1	14.5723779418	23.4827091149	28.5412076271
304	1	33.1276647326	17.7015157725	5.3528747535
305	1	39.2486258968	23.6887670327	32.8854353886
306	2	31.400481776	23.0444330984	15.0411598479
307	2	35.219520493	30.37969823	37.3705770681
308	1	36.3624117302	2.64475296169	21.9274417278
309	2	2.73608771552	3.34062203909	33.7813924491
310	2	3.11670697714	29.3830077359	16.6674795138
311	2	40.856982421	37.013969699	4.9354069707
312	1	4.7734793024	30.9746047135	9.8062489971
313	2	2.10415013764	13.9295731015	30.1242230451
314	2	26.4121596724	22.6530222401	17.84497599
315	1	40.0492014864	21.5390448686	7.1224981056
316	1	0.0392909933254	33.4193624723	20.9735945928
317	1	41.0073888512	3.81691503886	18.4504938084
318	2	12.3243926486	27.3585899454	16.6878749493
319	2	12.8320606706	40.1867491746	10.8309651201
320	2	14.7683221524	32.648980273	4.1378424354
321	2	5.6726240116	39.1412098119	1.96379613864
322	2	40.7642599242	40.2094791896	16.3164720087
323	1	3.1946235193	27.6754876818	19.9428216435
324	1	33.722249802	11.110431332	16.1862708447
325	2	4.8382450606	26.7543434921	21.7059349374
326	1	37.6157300262	30.3330810356	19.0706386563
327	1	3.35437219396	31.5059911369	14.9252972931
328	1	8.7668873684	11.3853405316	3.81746928645
329	1	11.8311353166	22.5623501439	17.8769494404
330	2	5.0137672648	12.1367948275	38.8835475561
331	2	39.1524448344	4.5126518689	35.0076731589
332	1	6.863399913	21.5676846875	40.0833760041
333	2	15.4627527168	11.7422844217	34.6855076838
334	1	24.61345852	36.2916511496	2.20334567895
335	1	10.6893145878	29.3089492143	9.0845390007
336	1	30.8422939922	3.4443411639	19.1591424855
337	1	7.2351133682	32.6004620228	16.7072815152
338	1	4.09357471352	28.6589121126	5.9369670639
339	2	19.303119255	25.9754065417	33.568826688
340	2	26.1653663128	9.7908919703	16.1578408437
341	1	28.0194456882	32.3864279361	18.6998125563
342	1	9.3550905608	3.5612147683	1.78182353079
343	1	26.4159476252	28.3078366991	37.6414861356
344	2	5.3417545692	39.5703938224	27.8011623402
345	2	1.13593704994	37.1199328962	16.4134636353
346	1	35.9537245618	10.6095857833	16.5346825671
347	2	1.52723669152	0.85492958964	0.162540908181
348	1	10.7143891884	12.2034970897	22.7803417578
349	2	34.1679106836	41.153312067	1.26362701836
350	1	16.7488450392	5.0401121988	2.82958443576
351	2	21.0463598376	9.4673818659	0.99577520604
352	1	10.5567362398	2.62658134788	26.1923951097
353	2	32.9038873036	6.6208400965	9.0439953471
354	2	11.2211513956	22.3166180181	5.8910258304
355	1	32.82755182	37.3947181139	0.78283037826
356	2	39.1251468702	2.26068183187	32.7372697602
357	1	14.1283639962	21.7341923792	26.5613670792
358	2	20.812124365	38.2030387746	9.412390476
359	1	28.0330740836	27.8566252377	39.5483563476
360	2	16.9366369166	27.7273947706	38.7708164217
361	1	38.020958629	28.9888279485	4.5607902039
362	2	27.2595494178	11.5434587814	28.9277732349
363	1	2.73444489686	25.582011973	12.4274538864
364	2	1.91438605438	34.9901304907	3.73394276757
365	1	38.2444890176	18.3060928442	36.3193262775
366	2	15.447847946	19.314313655	34.1200390842
367	2	6.7671776772	10.0534443072	21.4554625083
368	2	30.0791450232	31.8595875157	4.01854355874
369	1	23.904246705	18.3375429195	26.2988634033
370	1	1.94433970288	13.6289996486	15.1060544154
371	1	4.1403559306	23.8210143927	20.945906244
372	1	4.1905051318	32.8788427156	23.1510030462
373	1	7.882235696	8.1898723683	16.6832602245
374	2	40.5620573568	21.4928822745	14.4874340748
375	2	31.2975894494	16.2817990356	13.0133179215
376	1	23.640736945	35.4334071105	36.7993400625
377	1	1.9529984689	27.2114234301	5.3004646647
378	1	39.3307256564	7.8304901675	22.531805865
379	2	2.38915652978	8.6030213864	12.4766913519
380	2	16.7977590384	17.9907242179	27.1795341879
381	2	15.7582130352	4.7322651411	21.6127751805
382	1	39.764652119	1.26499972389	15.0072498612
383	2	3.06744300404	17.8180174312	5.9910664716
384	1	4.658358476	41.0213953254	10.9291104279
385	2	37.5375005662	21.8719775974	16.759279575
386	1	16.1946922486	30.0676357877	3.54894174657
387	1	28.3111180538	29.4618602243	35.3062293723
388	1	9.8115388732	5.5483966615	25.8746383449
389	2	10.466895881	14.2314277007	12.2314516911
390	1	8.547186106	23.6572343028	18.8304257493
391	1	10.2285842418	19.162642464	1.61971484103
392	1	9.8434070848	37.4331938302	22.0993402266
393	2	21.4573938898	23.7829932767	26.7935042178
394	2	15.163133885	23.380919975	16.0554516372
395	2	4.3239481212	40.7342945723	36.6190361721
396	2	35.8595198226	4.04541368056	29.6615144781
397	1	12.9505577158	0.263229278074	8.1303210396
398	2	38.6926203032	12.7947667708	28.0797351471
399	2	6.0612185608	7.6229444669	31.3943024376
400	1	15.648980005	20.2633537722	31.358703132
401	2	35.2457891222	6.7447806692	13.0646979378
402	1	25.5043685492	38.8903944282	1.37153741346
403	1	28.7761716068	20.3815498502	11.3289845724
404	2	8.4336298688	7.1509453736	39.167888769
405	1	16.4136935632	10.5042011683	13.3988534568
406	2	11.5786600278	9.0011272673	8.6203059264
407	1	13.7907832896	20.937236726	12.5466126732
408	2	29.8468858738	5.6578726792	14.1569456139
409	1	34.2540454364	4.2630763042	12.0433192497
410	2	34.3957231058	10.8654844249	9.078646986
411	2	11.6624478968	6.9247197334	39.7392081804
412	1	13.749445196	3.06025350316	21.8968279731
413	1	1.2880892323	21.7977537666	2.12370459354
414	1	29.6422952492	15.1800958722	2.79368434899
415	1	14.7893205864	25.872129619	31.4210431197
416	1	1.82682670194	5.1494642346	22.0430570652
417	1	21.5467401678	17.1453742964	15.8894451531
418	2	2.71772437912	3.70378568784	14.668644429
419	1	27.493331983	16.4104509205	30.2452771653
420	1	32.719677512	40.2297295666	9.1749793662
421	1	40.7764472506	4.4068953082	21.0064333041
422	1	15.8860976156	9.4634557724	27.7228356273
423	2	25.0931698034	9.0559685944	29.0762272836
424	2	35.8265399292	2.25627634169	32.3810294868
425	1	15.2542506192	1.70994183388	14.916273858
426	1	4.8935821102	0.332228511608	1.78663602951
427	1	20.455356854	12.8671722004	23.0536405935
428	2	34.3061709608	30.5324026035	9.6944243265
429	2	36.8435640826	20.914506711	21.9553360911
430	2	25.5835861708	29.7242885793	40.6727422857
431	2	38.1552250864	11.0791465659	40.9793742675
432	2	28.186692039	2.35561063997	17.3866349304
433	2	39.4886256454	9.3089329977	35.8742937546
434	2	21.1178780334	14.1513767206	1.74004791048
435	1	14.4579982366	35.8242393866	8.8401233979
436	2	25.505686098	2.8305894316	16.0771655655
437	1	9.6175298124	18.8974038526	35.48805777
438	2	10.523303439	0.0281654641506	27.6742574082
439	1	21.6212228484	15.1812117093	37.8554527953
440	1	2.2904144819	11.8823426414	38.9511203121
441	1	9.122378504	27.1443492222	12.1319878905
442	1	5.1413636314	38.8689868868	9.6030774972
443	2	5.1943949706	26.192416194	6.5232843309
444	1	32.2143152004	27.5949407741	26.4311247123
445	2	4.56407139	1.87245317567	40.5893476161
446	1	37.299600661	37.2157709049	34.5316148523
447	2	7.7770788324	11.7069909075	40.7882752173
448	2	28.6545453832	13.8501420309	31.1906365029
449	1	38.1567896756	9.1718916709	1.84735262295
450	2	14.9608489708	35.8566813171	21.4242307101
451	1	36.5466626952	31.2963790713	16.9610501763
452	2	14.789897014	35.8570119355	30.7749816477
453	2	22.020563655	4.732802396	12.601082907
454	2	39.2198868636	16.8381058209	15.3095967414
455	1	21.2534620396	16.5901420209	20.1816748548
456	2	13.5041340788	33.2441760476	1.12237935687
457	1	21.6559320246	38.9335401294	17.8806577014
458	2	3.08511874466	8.4029559271	18.1019996802
459	2	7.228813838	30.7079609739	39.0427143588
460	1	9.9585279112	38.8634077013	28.3152097206
461	1	24.8632987112	32.2593878159	34.3207384101
462	2	15.0429487304	38.7534770833	8.5181227344
463	2	23.4001607688	36.6535129884	10.7828813358
464	1	26.4458395136	31.6786979236	32.5412675649
465	1	22.3528741664	39.2265506864	15.3685992942
466	1	34.1378129282	34.4887063598	23.7793472712
467	2	6.173745463	2.06395975114	37.8031663152
468	1	7.7177067896	32.9046722781	31.2982172748
469	1	24.4378951424	28.7671896386	2.778311547
470	1	8.7754102622	33.2495072693	37.3319699508
471	2	37.3836767438	28.8208738013	15.8805041238
472	1	38.4793420912	33.6836505558	29.7470516985
473	1	20.1601847494	25.5308074483	2.36618778033
474	2	17.721648961	25.7484370101	20.7976170069
475	1	36.0325304494	14.107900401	36.3671628444
476	2	33.8244010074	6.9835284813	6.123987027
477	2	24.8000151954	22.8187447131	38.1563987769
478	1	27.6994460234	4.6624633314	12.8494127853
479	2	34.2451931554	25.1241468163	3.56062688901
480	2	12.5071201978	20.0339046026	34.8644518785
481	1	17.1395394318	7.4681737284	7.2922128507
482	1	5.0306895322	40.7963681769	22.7943095409
483	2	16.0035653258	21.0439438146	28.5234491772
484	1	24.355301302	24.8514692909	4.8811839543
485	1	30.1817903094	30.013538352	36.7786562067
486	2	39.1887185998	29.3809413709	7.1300382363
487	2	11.1504566678	7.2296325528	18.3001856292
488	2	18.626434426	7.8400781011	16.0360862742
489	1	18.6386217524	35.0962176698	12.3018674472
490	1	8.409255216	3.08144200987	22.4632030365
491	1	41.033204573	38.4280659231	14.3118685179
492	1	17.5422976306	27.3547465065	10.7794614951
493	1	9.2631091852	1.51821622372	24.4921574412
494	1	17.7043149596	35.2040405955	30.886929927
495	1	27.7375314184	36.5849096704	40.776037956
496	1	23.1094353914	20.3340234552	38.8267699599
497	2	0.82553490468	18.0132889237	0.227984298309
498	2	17.2076814088	13.0828593791	29.858093514
499	1	33.093326117	24.4902686889	40.2008866749
500	1	18.2605264202	29.7844198008	27.3548525274
501	1	5.9351867834	17.1473993341	26.6668053003
502	2	7.951612875	5.6175785617	33.0830856999
503	2	22.727922667	35.3111609571	18.1226011302
504	1	33.4364240592	27.0754152858	39.4457199237
505	1	33.4952608478	29.3653196515	7.2433462113
506	1	34.3409213104	4.6014229093	32.2500866706
507	1	28.5837683086	23.5692484811	8.429701311
508	2	26.4261998018	14.8004632944	35.9183808576
509	1	31.3863181264	39.2996173528	4.8232526769
510	1	38.96650576	3.42065235554	39.0914161866
511	2	15.5869316912	5.6741969627	5.4427382784
512	1	20.3146261728	4.7797915361	6.4306190088
513	2	3.1057507354	10.0537335983	40.7010898809
514	1	28.7002890306	26.8593974887	5.4203651037
515	2	33.7827335266	29.4194997418	32.8582414746
516	1	39.8016670056	40.7837633504	32.1480270873
517	2	38.2557293558	40.6049401233	25.6579110909
518	1	16.9303373864	23.4047244998	22.2297474051
519	2	17.2787055238	2.07889957009	37.3878410832
520	1	20.8767254296	2.0715309125	12.2295151548
521	1	33.283958959	19.0516373362	0.54850948596
522	2	38.0243760212	4.2623324128	6.5316073167
523	1	9.921554198	26.0141715491	15.8960376171
524	2	17.5890294396	2.97017238735	26.2377182997
525	2	20.4101484608	40.7891772267	25.4222717058
526	1	39.2686773426	32.224548902	39.7352939049
527	1	17.5768009398	41.2859313727	18.2589003234
528	2	30.1692324224	13.5641157876	11.459350548
529	2	10.9863394954	35.8150233987	32.7869604576
530	1	35.9352788786	39.9748227802	29.9431362996
531	2	25.2892375342	19.4452798687	15.4768393125
532	2	35.2629996034	23.2180490857	41.0031071379
533	2	21.1879139868	10.3733589365	39.0720508236
534	1	23.6066865432	30.5853015475	1.24656077718
535	2	39.1646321608	8.2291746306	27.1560485349
536	2	9.0751114408	16.586711855	10.6434095193
537	1	23.5184931204	2.48295244946	11.5935895962
538	1	13.9282612722	17.1311163779	33.9834926736
539	2	5.2174109012	33.4337443727	11.092644738
540	2	37.7701714496	24.2567281166	4.1871623067
541	2	30.1642916144	0.375753597422	12.6048735738
542	1	25.1214559292	5.4268530722	16.0437500136
543	2	12.8118033578	22.0584050477	37.4571031581
544	2	30.6613368992	39.1727012145	13.8472234146
545	2	24.7951979076	17.062389078	2.98557449487
546	2	9.5392180056	32.1535486006	29.3601976704
547	2	20.303838742	22.7024910182	29.5168510962
548	1	39.8157483084	24.1593609978	24.938055225
549	2	29.836510177	31.3687431736	16.7489376471
550	1	38.1065581276	0.45345553379	16.9297771752
551	2	20.3562524802	3.96714803982	27.3472299909
552	2	7.390831167	14.8825393122	3.11647198788
553	2	30.2893352302	39.4038034761	25.6869179325
554	2	5.2025473038	7.3999836834	4.2855548319
555	2	3.67680108936	30.9345172325	29.5071684147
556	2	7.9749581928	20.2918282819	8.2033325784
557	2	39.6470608886	5.8782298428	16.4054702727
558	2	6.6246765398	37.3020623073	22.4648099496
559	1	33.9866242034	28.0181736534	20.4163253703
560	1	16.3101424622	21.5491287298	8.1922902012
561	2	21.5940895778	24.7912140875	5.269026852
562	1	34.024462558	7.218639491	22.5532725759
563	2	22.7569087406	18.592738997	13.5008718372
564	2	29.3152137596	5.3427520167	41.148924201
565	2	5.3120273744	29.6753983834	3.7237120875
566	2	6.9532814452	4.9016657438	20.6145525222
567	2	1.83659303242	38.6772282148	32.0432069097
568	2	18.510119571	19.7093613157	37.4601109698
569	2	9.6737726768	13.453689242	5.1064402086
570	2	11.9348922846	34.3159995731	3.81264030657
571	1	31.749220474	8.8840883537	38.3527717983
572	2	37.8283082904	21.0902717179	3.34656546264
573	2	20.6632413506	5.580012046	33.3073530846
574	2	10.3059490604	31.0294047133	38.4900598611
575	2	35.5149808114	6.3811004292	35.9747464248
576	1	1.35397902432	12.2349884923	22.2857421462
577	2	37.1195905562	37.4955567259	15.4044870201
578	2	8.4350709378	10.9770681349	15.9643932282
579	1	17.9602899874	1.4273622874	23.6344778748
580	2	33.6723888146	12.657725444	6.8030520219
581	1	23.0067077584	6.4256099313	22.305189915
582	2	3.05675850674	16.8980304059	38.7462594933
583	2	15.9610332036	17.4458650947	31.6656235341
584	2	35.417152813	33.937152214	26.0420045247
585	1	28.6856724736	15.9861022041	11.1378855222
586	1	36.0004151974	37.594204991	30.2482025712
587	1	33.2432796398	25.6785938731	21.1683194982
588	1	22.743362692	14.5849414249	32.2429997718
589	1	1.39346431492	5.296093495	16.6920364422
590	2	20.6335141558	26.5979196616	21.9454473951
591	2	16.289432242	37.3776912663	2.36857754853
592	2	7.8966052126	12.1430352498	7.5546753237
593	2	40.256056648	2.57053739635	5.1622701381
594	2	5.6862935804	3.03078300553	32.3251583544
595	1	32.5190807072	4.8090925918	4.4501192145
596	2	28.5631816086	15.97300145	41.144803911
597	1	27.1046962604	15.1031857669	6.7112931636
598	1	26.3230192614	38.5502707492	9.9578756691
599	2	27.541093127	16.5770412668	4.5672178563
600	2	11.4083668454	29.7344137678	28.8113750424
601	2	4.361498262	28.6316360946	31.8414775113
602	1	33.404185287	33.2217353237	1.2085222599
603	2	6.0872401496	36.7919594434	33.8882315688
604	2	5.6488669598	13.6482581704	0.5871001221
605	1	33.572378626	38.0331422443	4.6462450185
606	1	11.8374760202	9.1289112789	25.596477567
607	2	3.39291049636	23.6216514975	6.4162391967
608	2	18.8802272636	20.6099658373	28.0697228424
609	1	29.0582505702	19.6149697625	2.62847720115
610	1	0.52709363212	39.5783699913	4.291282035
611	2	7.3611039722	11.7526162467	28.9864049616
612	1	37.4201975496	0.141469960268	30.8899377387
613	1	21.5648976372	34.8617678969	31.9281684129
614	1	39.9480384426	18.6798982727	26.9779696011
615	1	14.1395219876	3.28286713734	8.5790206206
616	1	19.9862683078	36.9966948876	38.6002776186
617	2	37.1623285454	10.549619871	33.6117601098
618	1	18.8855798056	30.3600264352	20.6379557694
619	1	29.9579305336	29.8787700267	19.0684549026
620	1	36.4896787096	31.3824638372	10.994581836
621	2	10.503540207	12.6101577217	39.9778553772
622	2	19.4119405512	12.2917722025	20.2466106252
623	2	5.1516569814	6.4336687548	23.6319644979
624	1	23.5819825032	34.7106752881	15.4073712231
625	1	29.843715522	22.839119072	2.36575514988
626	2	3.6176596176	15.8133127628	28.0656437553
627	1	6.7304921778	33.3273265752	38.8328267862
628	1	41.1226743712	4.01881129755	33.0932216133
629	1	15.1786562568	37.7255844777	4.9701822183
630	1	29.7099431454	32.7195673014	33.982915833
631	2	2.71429051756	15.053469025	7.1068410036
632	1	36.6309858184	28.7396656568	20.7417458745
633	2	4.5483431512	4.5183550363	38.6335695618
634	1	15.252068429	29.9376201019	38.1566047914
635	1	11.8471929426	23.5898294765	19.8421629588